
                                 *****************
                                 * O   R   C   A *
                                 *****************

                                            #,                                       
                                            ###                                      
                                            ####                                     
                                            #####                                    
                                            ######                                   
                                           ########,                                 
                                     ,,################,,,,,                         
                               ,,#################################,,                 
                          ,,##########################################,,             
                       ,#########################################, ''#####,          
                    ,#############################################,,   '####,        
                  ,##################################################,,,,####,       
                ,###########''''           ''''###############################       
              ,#####''   ,,,,##########,,,,          '''####'''          '####       
            ,##' ,,,,###########################,,,                        '##       
           ' ,,###''''                  '''############,,,                           
         ,,##''                                '''############,,,,        ,,,,,,###''
      ,#''                                            '''#######################'''  
     '                                                          ''''####''''         
             ,#######,   #######,   ,#######,      ##                                
            ,#'     '#,  ##    ##  ,#'     '#,    #''#        ,####,    ,#,          
            ##       ##  ##   ,#'  ##            #'  '#       #'       ,# #          
            ##       ##  #######   ##           ,######,      #####,      #          
            '#,     ,#'  ##    ##  '#,     ,#' ,#      #,     #,   #      #          
             '#######'   ##     ##  '#######'  #'      '#     '####' #    #          



                #########################################################
                #                        -***-                          #
                #          Department of theory and spectroscopy        #
                #                                                       #
                #                      Frank Neese                      #
                #                                                       #
                #     Directorship, Architecture, Infrastructure        #
                #                    SHARK, DRIVERS                     #
                #        Core code/Algorithms in most modules           #
                #                                                       #
                #        Max Planck Institute fuer Kohlenforschung      #
                #                Kaiser Wilhelm Platz 1                 #
                #                 D-45470 Muelheim/Ruhr                 #
                #                      Germany                          #
                #                                                       #
                #                  All rights reserved                  #
                #                        -***-                          #
                #########################################################


                         Program Version 6.1.0  -  RELEASE   -
                                (GIT: $679e74b$)
                          ($2025-06-10 18:02:51 +0200$)


 With contributions from (in alphabetic order):
[Max-Planck-Institut fuer Kohlenforschung]                               
  Daniel Aravena         : Magnetic Suceptibility                        
  Michael Atanasov       : Ab Initio Ligand Field Theory (pilot matlab implementation)
  Alexander A. Auer      : GIAO ZORA, VPT2 properties, NMR spectrum      
  Ute Becker             : All parallelization in ORCA, NUMFREQ, NUMCALC 
  Giovanni Bistoni       : ED, misc. LED, open-shell LED, HFLD           
  Dmytro Bykov           : pre 5.0 version of the SCF Hessian            
  Marcos Casanova-Páez   : Triplet and SCS-CIS(D). UHF-(DLPNO)-IP/EA/STEOM-CCSD. UHF-CVS-IP/STEOM-CCSD   
  Vijay G. Chilkuri      : MRCI spin determinant printing, contributions to CSF-ICE 
  Pauline Colinet        : FMM embedding                                 
  Dipayan Datta          : RHF DLPNO-CCSD density                        
  Achintya Kumar Dutta   : EOM-CC, STEOM-CC                              
  Nicolas Foglia         : Exact transition moments, OPA infrastructure, MCD improvements    
  Dmitry Ganyushin       : Spin-Orbit,Spin-Spin,Magnetic field MRCI      
  Miquel Garcia-Rates    : C-PCM and meta-GGA Hessian, CCSD/C-PCM, Gaussian charge scheme 
  Tiago L. C. Gouveia    : GS-ROHF, GS-ROCIS                             
  Yang Guo               : DLPNO-NEVPT2, F12-NEVPT2, CIM, IAO-localization        
  Andreas Hansen         : Spin unrestricted coupled pair/coupled cluster methods 
  Ingolf Harden          : AUTO-CI MPn and infrastructure                
  Benjamin Helmich-Paris : MC-RPA, TRAH-(SCF,CASSCF), AVAS, COSX integrals, SCF dyn. polar., MC-PDFT, srDFT 
  Lee Huntington         : MR-EOM, pCC                                   
  Robert Izsak           : Overlap fitted RIJCOSX, COSX-SCS-MP3, EOM     
  Riya Kayal             : Wick's Theorem for AUTO-CI, AUTO-CI UHF-CCSDT 
  Emily Kempfer          : AUTO-CI RHF CISDT and CCSDT, approximate NEVPT4
  Christian Kollmar      : KDIIS, OOCD, Brueckner-CCSD(T), CCSD density, CASPT2, CASPT2-K, improved NEVPT2 
  Axel Koslowski         : Symmetry handling                             
  Simone Kossmann        : meta-GGA functionals, TD-DFT gradient, OOMP2, (MP2 Hessian; deprecated post 5.0) 
  Lucas Lang             : DCDCAS, Hyperfine gauge corrections, ICE-SOC+SSC
  Marvin Lechner         : AUTO-CI (C++ implementation), FIC-MRCC        
  Spencer Leger          : CASSCF response                               
  Dagmar Lenk            : GEPOL surface, SMD, ORCA-2-JSON               
  Dimitrios Liakos       : Extrapolation schemes; Compound Job, Property file
  Dimitrios Manganas     : Further ROCIS development; embedding schemes. LFT, Crystal Embedding 
  Dimitrios Pantazis     : SARC Basis sets                               
  Anastasios Papadopoulos: AUTO-CI, single reference methods and gradients 
  Taras Petrenko         : pre 6.0 DFT Hessian and TD-DFT gradient,  ECA, NRVS 
  Petra Pikulova         : Analytic Raman intensities                    
  Peter Pinski           : DLPNO-MP2, DLPNO-MP2 Gradient                 
  Shashank Vittal Rao    : ES-AILFT, MagRelax                            
  Christoph Reimann      : Effective Core Potentials                     
  Marius Retegan         : Local ZFS, SOC                                
  Christoph Riplinger    : Optimizer, TS searches, QM/MM, DLPNO-CCSD(T), (RO)-DLPNO pert. Triples 
  Michael Roemelt        : Original ROCIS implementation, recursive CI coupling coefficients
  Masaaki Saitow         : Open-shell DLPNO-CCSD energy and density      
  Barbara Sandhoefer     : DKH picture change effects                    
  Yorick L. A. Schmerwitz: GMF and freeze-and-release deltaSCF, NEB S-IDPP initial path                    
  Kantharuban Sivalingam : CASSCF convergence/infrastructure, NEVPT2, NEVPT3, NEVPT4(SD), FIC-MRCI and CEPA variants
  Bernardo de Souza      : ESD, SOC TD-DFT                               
  Georgi L. Stoychev     : AutoAux, RI-MP2 NMR, DLPNO-MP2 response, X2C  
  Van Anh Tran           : RI-MP2 g-tensors                              
  Willem Van den Heuvel  : Paramagnetic NMR                              
  Zikuan Wang            : NOTCH, Electric field optimization            
  Frank Wennmohs         : Technical directorship and infrastructure     
  Hang Xu                : AUTO-CI-Response properties                   
                                                                         
[FACCTs GmbH]                                                            
  Markus Bursch, Nicolas Foglia, Miquel Garcia-Rates, Ingolf Harden, Hagen Neugebauer, Anastasios Papadopoulos, 
  Christoph Riplinger, Bernardo de Souza, Georgi L. Stoychev                                                    
                                                                 
  APM, various basis sets, CI-OPT, improved COSX, DLPNO-Multilevel,           
  DOCKER, DRACO, updates on ESD, Fragmentator, GOAT, IRC, LR-CPCM, L-BFGS, MBIS, meta-GGA TD-DFT gradient, ML-optimized integration grids, 
  MM, NACMEs, nearIR, NEB, NEB-TS, NL-DFT gradient (VV10), 2- and 3-layer-ONIOM, interface openCOSMO-RS, QMMM,   
  Crystal-QMMM, RESP, rigid body optimization, SF, symmetry and pop. for TD-DFT, various functionals, SOLVATOR                                   
                                                                         
[Other institutions]                                                     
  V. Asgeirsson          : NEB                                           
  Christoph Bannwarth    : sTDA-DFT, sTD-DFT, PBEh-3c, B97-3c, D3        
  Giovanni Bistoni       : ETS/NOCV, ADLD/ADEX, COVALED                  
  Martin Brehm           : Molecular dynamics                            
  Ronald Cardenas        : ETS/NOCV                                      
  Martina Colucci        : COVALED                                       
  Sebastian Ehlert       : rSCAN, r2SCAN, r2SCAN-3c, D4, dhf basis sets  
  Marvin Friede          : D4 for Fr, Ra, Ac-Lr                          
  Lars Goerigk           : TD-DFT with DH, B97 family of functionals     
  Stefan Grimme          : VdW corrections, initial TS optimization, DFT functionals, gCP, sTDA/sTD-DF 
  Waldemar Hujo          : DFT-NL                                        
  H. Jonsson             : NEB                                           
  Holger Kruse           : gCP                                           
  Marcel Mueller         : wB97X-3c, vDZP basis set                      
  Hagen Neugebauer       : wr2SCAN, Native XTB                           
  Gianluca Regni         : ADLD/ADEX                                     
  Tobias Risthaus        : pre 6.0 range-separated hybrid DFT and stability analysis
  Lukas Wittmann         : regularized MP2, r2SCAN double-hybrids, wr2SCAN        
                                                                         
We gratefully acknowledge several colleagues who have allowed us to      
interface, adapt or use parts of their codes:                            
  Ed Valeev, F. Pavosevic, A. Kumar             : LibInt (2-el integral package), F12 methods 
  Garnet Chan, S. Sharma, J. Yang, R. Olivares  : DMRG                   
  Ulf Ekstrom                                   : XCFun DFT Library      
  Mihaly Kallay                                 : mrcc  (arbitrary order and MRCC methods)
  Frank Weinhold                                : gennbo (NPA and NBO analysis)           
  Simon Mueller                                 : openCOSMO-RS                            
  Christopher J. Cramer and Donald G. Truhlar   : smd solvation model                     
  S Lehtola, MJT Oliveira, MAL Marques          : LibXC Library                           
  Liviu Ungur et al                             : ANISO software                          


 Your calculation uses the libint2 library for the computation of 2-el integrals
 For citations please refer to: http://libint.valeyev.net

 Your ORCA version has been built with support for libXC version: 7.0.0
 For citations please refer to: https://libxc.gitlab.io

 This ORCA versions uses:
   CBLAS   interface :  Fast vector & matrix operations
   LAPACKE interface :  Fast linear algebra routines
   SCALAPACK package :  Parallel linear algebra routines
   Shared memory     :  Shared parallel matrices
   BLAS/LAPACK       :  OpenBLAS 0.3.29  USE64BITINT DYNAMIC_ARCH NO_AFFINITY SkylakeX SINGLE_THREADED
        Core in use  :  SkylakeX
   Copyright (c) 2011-2014, The OpenBLAS Project


  ***********************************
  * Starting time: Sun Jul 13 11:38:42 2025
  * Host name:     archlinux
  * Process ID:    599670
  * Working dir.:  /home/tunahanucar/Desktop/boun-lessons/chem105/chem-python/main
  ***********************************

Warning: RI is on but no J-basis has been assigned. Assigning Def2/J (nothing to worry about!)
================================================================================

----- Orbital basis set information -----
Your calculation utilizes the basis: 6-31G*
   H-He, Li-Ne : W. J. Hehre, R. Ditchfield and J.A. Pople, J. Chem. Phys. 56, 2257 (1972).
                 Note: He and Ne are unpublished basis sets taken from the Gaussian program.
                 Note: Li and B from J. D. Dill and J. A. Pople, J. Chem. Phys. 62, 2921 (1975).
   Na - Ar     : M. M. Francl, W. J. Pietro, W. J. Hehre, J. S. Binkley, M. S. Gordon, 
                 D. J. DeFrees and J. A. Pople, J. Chem. Phys. 77, 3654 (1982).
   Sc - Zn     : V. A. Rassolov, J. A. Pople, M. A. Ratner, and T. L. Windus, J. Chem. Phys. 109, 1223 (1998).
   K,Ca,Ga-Kr  : V.A. Rassolov, M.A. Ratner, J.A. Pople, P.C. Redfern, and L.A. Curtiss, J. Comput. Chem. 22, 976 (2001).
----- AuxJ basis set information -----
Your calculation utilizes the auxiliary basis: def2/J
   H-Rn: F. Weigend, Phys. Chem. Chem. Phys. 8, 1057 (2006).
   Fr-Lr: K. Eichkorn, F. Weigend, O. Treutler, R. Ahlrichs; Theor. Chem. Acc. 97, 119 (1997).

================================================================================
                                        WARNINGS
                       Please study these warnings very carefully!
================================================================================


WARNING: Geometry Optimization
  ===> : Switching off AutoStart
         For restart on a previous wavefunction, please use MOREAD

================================================================================
                                       INPUT FILE
================================================================================
NAME = h2s_opt.inp
|  1> ! B3LYP 6-31G* Opt TightSCF
|  2> 
|  3> * xyz 0 1
|  4> S       0.000000    0.000000    0.000000
|  5> H       0.950000    0.000000    0.300000
|  6> H      -0.950000    0.000000    0.300000
|  7> *
|  8> 
|  9>                          ****END OF INPUT****
================================================================================

                       *****************************
                       * Geometry Optimization Run *
                       *****************************

Geometry optimization settings:
Update method            Update   .... BFGS
Choice of coordinates    CoordSys .... (2022) Redundant Internals
Initial Hessian          InHess   .... Almloef's Model
Max. no of cycles        MaxIter  .... 50

Convergence Tolerances:
Energy Change            TolE     ....  5.0000e-06 Eh
Max. Gradient            TolMAXG  ....  3.0000e-04 Eh/bohr
RMS Gradient             TolRMSG  ....  1.0000e-04 Eh/bohr
Max. Displacement        TolMAXD  ....  4.0000e-03 bohr
RMS Displacement         TolRMSD  ....  2.0000e-03 bohr
Strict Convergence                .... False

------------------------------------------------------------------------------
                        ORCA OPTIMIZATION COORDINATE SETUP
------------------------------------------------------------------------------

The optimization will be done in redundant internal coordinates (2022)
Making redundant internal coordinates   ...  (2022 redundants) done
Evaluating the initial hessian          ...  (Almloef) done
Evaluating the coordinates              ...  done
Calculating the B-matrix                .... done
Calculating the G-matrix                .... done
The number of degrees of freedom        ....    3

    -----------------------------------------------------------------
                    Redundant Internal Coordinates


    -----------------------------------------------------------------
         Definition                    Initial Value    Approx d2E/dq
    -----------------------------------------------------------------
      1. B(H   1,S   0)                  0.9962         1.370170   
      2. B(H   2,S   0)                  0.9962         1.370170   
      3. A(H   1,S   0,H   2)          144.9489         0.534093   
    -----------------------------------------------------------------

Number of atoms                         .... 3
Number of degrees of freedom            .... 3


         *************************************************************
         *                GEOMETRY OPTIMIZATION CYCLE   1            *
         *************************************************************
---------------------------------
CARTESIAN COORDINATES (ANGSTROEM)
---------------------------------
  S      0.000000    0.000000    0.000000
  H      0.950000    0.000000    0.300000
  H     -0.950000    0.000000    0.300000

----------------------------
CARTESIAN COORDINATES (A.U.)
----------------------------
  NO LB      ZA    FRAG     MASS         X           Y           Z
   0 S    16.0000    0    32.060    0.000000    0.000000    0.000000
   1 H     1.0000    0     1.008    1.795240    0.000000    0.566918
   2 H     1.0000    0     1.008   -1.795240    0.000000    0.566918

--------------------------------
INTERNAL COORDINATES (ANGSTROEM)
--------------------------------
 S      0   0   0     0.000000000000     0.00000000     0.00000000
 H      1   0   0     0.996242942259     0.00000000     0.00000000
 H      1   2   0     0.996242942259   144.94886325     0.00000000

---------------------------
INTERNAL COORDINATES (A.U.)
---------------------------
 S      0   0   0     0.000000000000     0.00000000     0.00000000
 H      1   0   0     1.882626323721     0.00000000     0.00000000
 H      1   2   0     1.882626323721   144.94886325     0.00000000

---------------------
BASIS SET INFORMATION
---------------------
There are 2 groups of distinct atoms

 Group   1 Type S   : 16s10p1d contracted to 4s3p1d pattern {6631/631/1}
 Group   2 Type H   : 4s contracted to 2s pattern {31}

Atom   0S    basis set group =>   1
Atom   1H    basis set group =>   2
Atom   2H    basis set group =>   2
---------------------------------
AUXILIARY/J BASIS SET INFORMATION
---------------------------------
There are 2 groups of distinct atoms

 Group   1 Type S   : 14s5p5d2f1g contracted to 8s4p3d1f1g pattern {71111111/2111/311/2/1}
 Group   2 Type H   : 5s2p1d contracted to 3s1p1d pattern {311/2/1}

Atom   0S    basis set group =>   1
Atom   1H    basis set group =>   2
Atom   2H    basis set group =>   2
------------------------------------------------------------------------------
                             ORCA STARTUP CALCULATIONS
                           -- RI-GTO INTEGRALS CHOSEN --
------------------------------------------------------------------------------
------------------------------------------------------------------------------
                   ___                                                        
                  /   \      - P O W E R E D   B Y -                         
                 /     \                                                     
                 |  |  |   _    _      __       _____    __    __             
                 |  |  |  | |  | |    /  \     |  _  \  |  |  /  |          
                  \  \/   | |  | |   /    \    | | | |  |  | /  /          
                 / \  \   | |__| |  /  /\  \   | |_| |  |  |/  /          
                |  |  |   |  __  | /  /__\  \  |    /   |      \           
                |  |  |   | |  | | |   __   |  |    \   |  |\   \          
                \     /   | |  | | |  |  |  |  | |\  \  |  | \   \       
                 \___/    |_|  |_| |__|  |__|  |_| \__\ |__|  \__/        
                                                                              
                      - O R C A' S   B I G   F R I E N D -                    
                                      &                                       
                       - I N T E G R A L  F E E D E R -                       
                                                                              
 v1 FN, 2020, v2 2021, v3 2022-2024                                           
------------------------------------------------------------------------------


----------------------
SHARK INTEGRAL PACKAGE
----------------------

Number of atoms                             ...      3
Number of basis functions                   ...     22
Number of shells                            ...     12
Maximum angular momentum                    ...      2
Integral batch strategy                     ... SHARK/LIBINT Hybrid
RI-J (if used) integral strategy            ... SPLIT-RIJ (Revised 2003 algorithm where possible)
Printlevel                                  ...      1
Contraction scheme used                     ... SEGMENTED contraction
Prescreening option                         ... SCHWARTZ
   Thresh                                   ... 2.500e-11
   Tcut                                     ... 2.500e-12
   Tpresel                                  ... 2.500e-12 
Coulomb Range Separation                    ... NOT USED
Exchange Range Separation                   ... NOT USED
Multipole approximations                    ... NOT USED
Finite Nucleus Model                        ... NOT USED
CABS basis                                  ... NOT available
Auxiliary Coulomb fitting basis             ... AVAILABLE
   # of basis functions in Aux-J            ...     73
   # of shells in Aux-J                     ...     27
   Maximum angular momentum in Aux-J        ...      4
Auxiliary J/K fitting basis                 ... NOT available
Auxiliary Correlation fitting basis         ... NOT available
Auxiliary 'external' fitting basis          ... NOT available

Checking pre-screening integrals            ... done (  0.0 sec) Dimension = 12
   => SHARK Basis and OBASIS are compatible. Storing Pre-screening
Shell pair information
Shell pair cut-off parameter TPreSel        ...   2.5e-12
Total number of shell pairs                 ...        78
Shell pairs after pre-screening             ...        78
Total number of primitive shell pairs       ...       687
Primitive shell pairs kept                  ...       660
          la=0 lb=0:     36 shell pairs
          la=1 lb=0:     24 shell pairs
          la=1 lb=1:      6 shell pairs
          la=2 lb=0:      8 shell pairs
          la=2 lb=1:      3 shell pairs
          la=2 lb=2:      1 shell pairs

Checking whether 4 symmetric matrices of dimension 22 fit in memory
:Max Core in MB      =   4096.00
 MB in use           =      3.29
 MB left             =   4092.71
 MB needed           =      0.01
 Data fit in memory  = YES
Calculating RI/J V-Matrix + Cholesky decomp.... done (  0.0 sec)
Calculating Nuclear repulsion               ... done (  0.0 sec) ENN=     17.276045692586 Eh

Diagonalization of the overlap matrix:
Smallest eigenvalue                        ... 2.018e-02
Time for diagonalization                   ...    0.000 sec
Threshold for overlap eigenvalues          ... 1.000e-07
Number of eigenvalues below threshold      ... 0
Time for construction of square roots      ...    0.000 sec
Total time needed                          ...    0.000 sec

-------------------
DFT GRID GENERATION
-------------------

General Integration Accuracy     IntAcc      ... 4.388
Radial Grid Type                 RadialGrid  ... OptM3 with GC (2021)
Angular Grid (max. ang.)         AngularGrid ... 4 (Lebedev-302)
Angular grid pruning method      GridPruning ... 4 (adaptive)
Weight generation scheme         WeightScheme... mBecke (2022)
Basis function cutoff            BFCut       ... 1.0000e-11
Integration weight cutoff        WCut        ... 1.0000e-14
Partially contracted basis set               ... off
Rotationally invariant grid construction     ... off
Angular grids for H and He will be reduced by one unit

Total number of grid points                  ...    13952
Total number of batches                      ...      219
Average number of points per batch           ...       63
Average number of grid points per atom       ...     4651

--------------------
COSX GRID GENERATION
--------------------

GRIDX 1
-------
General Integration Accuracy     IntAcc      ... 3.816
Radial Grid Type                 RadialGrid  ... OptM3 with GC (2021)
Angular Grid (max. ang.)         AngularGrid ... 1 (Lebedev-50)
Angular grid pruning method      GridPruning ... 4 (adaptive)
Weight generation scheme         WeightScheme... mBecke (2022)
Basis function cutoff            BFCut       ... 1.0000e-11
Integration weight cutoff        WCut        ... 1.0000e-14
Partially contracted basis set               ... on
Rotationally invariant grid construction     ... off
Angular grids for H and He will be reduced by one unit

Total number of grid points                  ...     2870
Total number of batches                      ...       24
Average number of points per batch           ...      119
Average number of grid points per atom       ...      957
UseSFitting                                  ... on

GRIDX 2
-------
General Integration Accuracy     IntAcc      ... 4.020
Radial Grid Type                 RadialGrid  ... OptM3 with GC (2021)
Angular Grid (max. ang.)         AngularGrid ... 2 (Lebedev-110)
Angular grid pruning method      GridPruning ... 4 (adaptive)
Weight generation scheme         WeightScheme... mBecke (2022)
Basis function cutoff            BFCut       ... 1.0000e-11
Integration weight cutoff        WCut        ... 1.0000e-14
Partially contracted basis set               ... on
Rotationally invariant grid construction     ... off
Angular grids for H and He will be reduced by one unit

Total number of grid points                  ...     3604
Total number of batches                      ...       30
Average number of points per batch           ...      120
Average number of grid points per atom       ...     1201
UseSFitting                                  ... on

GRIDX 3
-------
General Integration Accuracy     IntAcc      ... 4.338
Radial Grid Type                 RadialGrid  ... OptM3 with GC (2021)
Angular Grid (max. ang.)         AngularGrid ... 3 (Lebedev-194)
Angular grid pruning method      GridPruning ... 4 (adaptive)
Weight generation scheme         WeightScheme... mBecke (2022)
Basis function cutoff            BFCut       ... 1.0000e-11
Integration weight cutoff        WCut        ... 1.0000e-14
Partially contracted basis set               ... on
Rotationally invariant grid construction     ... off
Angular grids for H and He will be reduced by one unit

Total number of grid points                  ...     8558
Total number of batches                      ...       69
Average number of points per batch           ...      124
Average number of grid points per atom       ...     2853
UseSFitting                                  ... on
Grids setup in   0.0 sec
Initializing property integral containers    ... done (  0.0 sec)

SHARK setup successfully completed in   0.1 seconds

Maximum memory used throughout the entire STARTUP-calculation: 9.6 MB
-------------------------------------------------------------------------------
                                 ORCA GUESS
                   Start orbitals & Density for SCF / CASSCF
-------------------------------------------------------------------------------

------------
SCF SETTINGS
------------
Hamiltonian:
 Density Functional     Method          .... DFT(GTOs)
 Exchange Functional    Exchange        .... B88
   X-Alpha parameter    XAlpha          ....  0.666667
   Becke's b parameter  XBeta           ....  0.004200
 Correlation Functional Correlation     .... LYP
 LDA part of GGA corr.  LDAOpt          .... VWN-5
 Gradients option       PostSCFGGA      .... off
 Hybrid DFT is turned on
   Fraction HF Exchange ScalHFX         ....  0.200000
   Scaling of DF-GGA-X  ScalDFX         ....  0.720000
   Scaling of DF-GGA-C  ScalDFC         ....  0.810000
   Scaling of DF-LDA-C  ScalLDAC        ....  1.000000
   Perturbative correction              ....  0.000000
   NL short-range parameter             ....  4.800000
 RI-approximation to the Coulomb term is turned on
   Number of AuxJ basis functions       .... 73
   RIJ-COSX (HFX calculated with COS-X)).... on


General Settings:
 Integral files         IntName         .... h2s_opt
 Hartree-Fock type      HFTyp           .... RHF
 Total Charge           Charge          ....    0
 Multiplicity           Mult            ....    1
 Number of Electrons    NEL             ....   18
 Basis Dimension        Dim             ....   22
 Nuclear Repulsion      ENuc            ....     17.2760456926 Eh

Convergence Acceleration:
 AO-DIIS                CNVDIIS         .... on
   Start iteration      DIISMaxIt       ....    12
   Startup error        DIISStart       ....  0.200000
   # of expansion vecs  DIISMaxEq       ....     5
   Bias factor          DIISBfac        ....   1.050
   Max. coefficient     DIISMaxC        ....  10.000
 MO-DIIS                CNVKDIIS        .... off
 Trust-Rad. Augm. Hess. CNVTRAH         .... auto
   Auto Start mean grad. ratio tolernc. ....  1.125000
   Auto Start start iteration           ....    50
   Auto Start num. interpolation iter.  ....    10
   Max. Number of Micro iterations      ....    24
   Max. Number of Macro iterations      .... Maxiter - #DIIS iter
   Number of Davidson start vectors     ....     2
   Converg. threshold    (grad. norm)   ....   1.000e-05
   Grad. Scal. Fac. for Micro threshold ....   0.100
   Minimum threshold for Micro iter.    ....   1.000e-02
   NR start threshold (gradient norm)   ....   1.000e-04
   Initial trust radius                 ....   0.400
   Minimum AH scaling param. (alpha)    ....   1.000
   Maximum AH scaling param. (alpha)    .... 1000.000
   Quad. conv. algorithm                .... NR
   White noise on init. David. guess    .... on
   Maximum white noise                  ....   0.010
   Pseudo random numbers                .... off
   Inactive MOs                         .... canonical
   Orbital update algorithm             .... Taylor
   Preconditioner                       .... Diag
   Full preconditioner red. dimension   ....   250
 SOSCF                 CNVSOSCF           .... on
   Start iteration     SOSCFMaxIt         ....   150
   Startup grad/error  SOSCFStart         ....  0.003300
   Hessian update      SOSCFHessUp        .... L-BFGS
   Autom. constraints  SOSCFAutoConstrain .... off
 Level Shifting         CNVShift        .... on
   Level shift para.    LevelShift      ....    0.2500
   Turn off err/grad.   ShiftErr        ....    0.0010
 Zerner damping         CNVZerner       .... off
 Static damping         CNVDamp         .... on
   Fraction old density DampFac         ....    0.7000
   Max. Damping (<1)    DampMax         ....    0.9800
   Min. Damping (>=0)   DampMin         ....    0.0000
   Turn off err/grad.   DampErr         ....    0.1000

SCF Procedure:
 Maximum # iterations   MaxIter         ....   125
 SCF integral mode      SCFMode         .... Direct
   Integral package                     .... SHARK and LIBINT hybrid scheme
 Reset frequency        DirectResetFreq ....    20
 Integral Threshold     Thresh          ....  2.500e-11 Eh
 Primitive CutOff       TCut            ....  2.500e-12 Eh

Convergence Tolerance:
 Convergence Check Mode ConvCheckMode   .... Total+1el-Energy
 Convergence forced     ConvForced      .... 0
 Energy Change          TolE            ....  1.000e-08 Eh
 1-El. energy change                    ....  1.000e-05 Eh
 Orbital Gradient       TolG            ....  1.000e-05
 Orbital Rotation angle TolX            ....  1.000e-05
 DIIS Error             TolErr          ....  5.000e-07

------------------------------
INITIAL GUESS: MODEL POTENTIAL
------------------------------
Loading Hartree-Fock densities                     ... done
Calculating cut-offs                               ... done
Initializing the effective Hamiltonian             ... done
Setting up the integral package (SHARK)            ... done
Starting the Coulomb interaction                   ... done (   0.0 sec)
Making the grid                                    ... done (   0.0 sec)
Mapping shells                                     ... done
Starting the XC term evaluation                    ... done (   0.0 sec)
  promolecular density results
     # of electrons  =     17.999150585
     EX              =    -25.733698961
     EC              =     -0.707673242
     EX+EC           =    -26.441372203
Transforming the Hamiltonian                       ... done (   0.0 sec)
Diagonalizing the Hamiltonian                      ... done (   0.0 sec)
Back transforming the eigenvectors                 ... done (   0.0 sec)
Now organizing SCF variables                       ... done
                      ------------------
                      INITIAL GUESS DONE (   0.0 sec)
                      ------------------
             **** ENERGY FILE WAS UPDATED (h2s_opt.en.tmp) ****
Finished Guess after   0.0 sec
Maximum memory used throughout the entire GUESS-calculation: 5.6 MB

-------------------------------------------------------------------------------------------
                                      ORCA LEAN-SCF
                              memory conserving SCF solver
-------------------------------------------------------------------------------------------

----------------------------------------D-I-I-S--------------------------------------------
Iteration    Energy (Eh)           Delta-E    RMSDP     MaxDP     DIISErr   Damp  Time(sec)
-------------------------------------------------------------------------------------------
               ***  Starting incremental Fock matrix formation  ***
    1    -398.9962724990174934     0.00e+00  9.02e-03  7.03e-02  8.38e-02  0.700   0.1
    2    -399.0048529459458564    -8.58e-03  7.27e-03  5.85e-02  5.47e-02  0.700   0.1
                               ***Turning on AO-DIIS***
    3    -399.0095268838538800    -4.67e-03  3.17e-03  2.63e-02  3.02e-02  0.700   0.1
    4    -399.0122068314815920    -2.68e-03  5.92e-03  4.80e-02  1.92e-02  0.000   0.1
                              *** Initializing SOSCF ***
---------------------------------------S-O-S-C-F--------------------------------------
Iteration    Energy (Eh)           Delta-E    RMSDP     MaxDP     MaxGrad    Time(sec)
--------------------------------------------------------------------------------------
    5    -399.0176874116931458    -5.48e-03  2.15e-04  1.19e-03  9.37e-04     0.1
               *** Restarting incremental Fock matrix formation ***
    6    -399.0177003326406293    -1.29e-05  1.77e-04  1.31e-03  2.47e-04     0.1
    7    -399.0177005226583447    -1.90e-07  5.58e-05  4.28e-04  1.40e-04     0.1
    8    -399.0177006370068966    -1.14e-07  3.12e-06  1.91e-05  4.87e-06     0.1
    9    -399.0177006372916253    -2.85e-10  5.09e-07  2.88e-06  1.30e-06     0.1
                 **** Energy Check signals convergence ****

               *****************************************************
               *                     SUCCESS                       *
               *           SCF CONVERGED AFTER   9 CYCLES          *
               *****************************************************

Recomputing exchange energy using gridx3       ... done (    0.084 sec)
Old exchange energy                            :     -5.191455069 Eh
New exchange energy                            :     -5.191465171 Eh
Exchange energy change after final integration :     -0.000010102 Eh
Total energy after final integration           :   -399.017710740 Eh
             **** ENERGY FILE WAS UPDATED (h2s_opt.en.tmp) ****

----------------
TOTAL SCF ENERGY
----------------

Total Energy       :       -399.01771073963278 Eh          -10857.82391 eV

Components:
Nuclear Repulsion  :         17.27604569258598 Eh             470.10510 eV
Electronic Energy  :       -416.29374632988402 Eh          -11327.92874 eV
One Electron Energy:       -584.54415796583567 Eh          -15906.25520 eV
Two Electron Energy:        168.25041163595165 Eh            4578.32646 eV

Virial components:
Potential Energy   :       -799.14602061336711 Eh          -21745.86876 eV
Kinetic Energy     :        400.12830987373434 Eh           10888.04485 eV
Virial Ratio       :          1.99722439250936

DFT components:
N(Alpha)           :        9.000000177760 electrons
N(Beta)            :        9.000000177760 electrons
N(Total)           :       18.000000355520 electrons
E(X)               :      -20.585017859918 Eh       
E(C)               :       -0.833952147489 Eh       
E(XC)              :      -21.418970007407 Eh       

---------------
SCF CONVERGENCE
---------------

  Last Energy change         ...    2.8473e-10  Tolerance :   1.0000e-08
  Last MAX-Density change    ...    2.8848e-06  Tolerance :   1.0000e-07
  Last RMS-Density change    ...    5.0947e-07  Tolerance :   5.0000e-09
  Last DIIS Error            ...    9.3652e-04  Tolerance :   5.0000e-07
  Last Orbital Gradient      ...    1.2954e-06  Tolerance :   1.0000e-05
  Last Orbital Rotation      ...    1.0054e-06  Tolerance :   1.0000e-05


----------------
ORBITAL ENERGIES
----------------

  NO   OCC          E(Eh)            E(eV) 
   0   2.0000     -88.810183     -2416.6479 
   1   2.0000      -7.929214      -215.7649 
   2   2.0000      -5.894330      -160.3929 
   3   2.0000      -5.882768      -160.0783 
   4   2.0000      -5.880050      -160.0043 
   5   2.0000      -0.839279       -22.8380 
   6   2.0000      -0.616108       -16.7651 
   7   2.0000      -0.292213        -7.9515 
   8   2.0000      -0.270511        -7.3610 
   9   0.0000       0.035729         0.9722 
  10   0.0000       0.178509         4.8575 
  11   0.0000       0.224443         6.1074 
  12   0.0000       0.289184         7.8691 
  13   0.0000       0.362765         9.8713 
  14   0.0000       0.364750         9.9254 
  15   0.0000       0.647056        17.6073 
  16   0.0000       0.694902        18.9092 
  17   0.0000       0.771539        20.9946 
  18   0.0000       0.772261        21.0143 
  19   0.0000       0.804207        21.8836 
*Only the first 10 virtual orbitals were printed.

                    ********************************
                    * MULLIKEN POPULATION ANALYSIS *
                    ********************************

-----------------------
MULLIKEN ATOMIC CHARGES
-----------------------
   0 S :   -0.462052
   1 H :    0.231026
   2 H :    0.231026
Sum of atomic charges:   -0.0000000

--------------------------------
MULLIKEN REDUCED ORBITAL CHARGES
--------------------------------
  0 S s       :     5.561634  s :     5.561634
      pz      :     3.801273  p :    10.836669
      px      :     3.037331
      py      :     3.998064
      dz2     :     0.004379  d :     0.063748
      dxz     :     0.026643
      dyz     :     0.001936
      dx2y2   :     0.030790
      dxy     :     0.000000

  1 H s       :     0.768974  s :     0.768974

  2 H s       :     0.768974  s :     0.768974



                     *******************************
                     * LOEWDIN POPULATION ANALYSIS *
                     *******************************

----------------------
LOEWDIN ATOMIC CHARGES
----------------------
   0 S :   -0.225239
   1 H :    0.112620
   2 H :    0.112620

-------------------------------
LOEWDIN REDUCED ORBITAL CHARGES
-------------------------------
  0 S s       :     5.285038  s :     5.285038
      pz      :     3.827541  p :    10.873425
      px      :     3.047819
      py      :     3.998064
      dz2     :     0.004640  d :     0.066777
      dxz     :     0.028502
      dyz     :     0.001936
      dx2y2   :     0.031700
      dxy     :     0.000000

  1 H s       :     0.887380  s :     0.887380

  2 H s       :     0.887380  s :     0.887380



                      *****************************
                      * MAYER POPULATION ANALYSIS *
                      *****************************

  NA   - Mulliken gross atomic population
  ZA   - Total nuclear charge
  QA   - Mulliken gross atomic charge
  VA   - Mayer's total valence
  BVA  - Mayer's bonded valence
  FA   - Mayer's free valence

  ATOM       NA         ZA         QA         VA         BVA        FA
  0 S     16.4621    16.0000    -0.4621     1.8088     1.8088    -0.0000
  1 H      0.7690     1.0000     0.2310     0.9170     0.9170    -0.0000
  2 H      0.7690     1.0000     0.2310     0.9170     0.9170     0.0000

  Mayer bond orders larger than 0.100000
B(  0-S ,  1-H ) :   0.9044 B(  0-S ,  2-H ) :   0.9044 

-------
TIMINGS
-------

Total SCF time: 0 days 0 hours 0 min 0 sec 

Total time                  ....       0.666 sec
Sum of individual times     ....       0.607 sec  ( 91.1%)

SCF preparation             ....       0.037 sec  (  5.5%)
Fock matrix formation       ....       0.566 sec  ( 85.0%)
  Startup                   ....       0.000 sec  (  0.0% of F)
  Split-RI-J                ....       0.024 sec  (  4.2% of F)
  Chain of spheres X        ....       0.462 sec  ( 81.6% of F)
  XC integration            ....       0.126 sec  ( 22.3% of F)
    Basis function eval.    ....       0.047 sec  ( 36.9% of XC)
    Density eval.           ....       0.013 sec  ( 10.3% of XC)
    XC-Functional eval.     ....       0.035 sec  ( 27.7% of XC)
    XC-Potential eval.      ....       0.017 sec  ( 13.7% of XC)
Diagonalization             ....       0.000 sec  (  0.0%)
Density matrix formation    ....       0.001 sec  (  0.1%)
Total Energy calculation    ....       0.000 sec  (  0.0%)
Population analysis         ....       0.001 sec  (  0.1%)
Orbital Transformation      ....       0.000 sec  (  0.0%)
Orbital Orthonormalization  ....       0.000 sec  (  0.0%)
DIIS solution               ....       0.001 sec  (  0.2%)
SOSCF solution              ....       0.001 sec  (  0.1%)
Finished LeanSCF after   0.7 sec

Maximum memory used throughout the entire LEANSCF-calculation: 5.2 MB

-------------------------   --------------------
FINAL SINGLE POINT ENERGY      -399.017710739633
-------------------------   --------------------

------------------------------------------------------------------------------
                         ORCA SCF GRADIENT CALCULATION
------------------------------------------------------------------------------

Nuc. rep. gradient        (SHARK) ... done (  0.0 sec)
HCore & Overlap gradient  (SHARK) ... done (  0.0 sec)
Split-RIJ-J gradient      (SHARK) ... done (  0.1 sec)
done (  0.3 sec)
XC gradient                       ... done (  0.0 sec)

------------------
CARTESIAN GRADIENT
------------------

   1   S   :    0.000000006    0.000000021    0.395534111
   2   H   :   -0.448841454   -0.000000011   -0.197767052
   3   H   :    0.448841448   -0.000000009   -0.197767059

Difference to translation invariance:
           :   -0.0000000000   -0.0000000000   -0.0000000000

Difference to rotation invariance:
           :    0.0000000118   -0.0000000161   -0.0000000033

Norm of the Cartesian gradient     ...    0.7984911683
RMS gradient                       ...    0.2661637228
MAX gradient                       ...    0.4488414540

-------
TIMINGS
-------

Total SCF gradient time     ....        0.404 sec

Densities                   ....       0.000 sec  (  0.0%)
One electron gradient       ....       0.003 sec  (  0.8%)
RI-J Coulomb gradient       ....       0.067 sec  ( 16.7%)
COSX gradient               ....       0.292 sec  ( 72.2%)
XC gradient                 ....       0.042 sec  ( 10.3%)

Maximum memory used throughout the entire SCFGRAD-calculation: 6.5 MB
------------------------------------------------------------------------------
                         ORCA GEOMETRY RELAXATION STEP
------------------------------------------------------------------------------

Reading the OPT-File                    .... done
Getting information on internals        .... done
Copying old internal coords+grads       .... done
Making the new internal coordinates     .... (2022 redundants) done
Validating the new internal coordinates .... (2022 redundants) done
Calculating the B-matrix                .... done
Calculating the G,G- and P matrices     .... done
Transforming gradient to internals      .... done
Projecting the internal gradient        .... done
Number of atoms                         ....   3
Number of internal coordinates          ....   3
Current Energy                          ....  -399.017710740 Eh
Current gradient norm                   ....     0.798491168 Eh/bohr
Maximum allowed component of the step   ....  0.300
Current trust radius                    ....  0.300
Evaluating the initial hessian          ....  (Almloef) done
Projecting the Hessian                  .... done
Forming the augmented Hessian           .... done
Diagonalizing the augmented Hessian     .... done
Last element of RFO vector              ....  0.918386653
Lowest eigenvalues of augmented Hessian:
 -0.297292027  0.543142132  1.370169507
Length of the computed step             ....  0.430847029
Warning: the length of the step is outside the trust region - taking restricted step instead
The input lambda is                     ....     0.533093
   iter:   5  x=    0.526493  g=155774.753216 f(x)=   395.031686
   iter:  10  x=    0.473688  g=  335.494764 f(x)=     7.090336
   iter:  15  x=   -0.433329  g=    0.456949 f(x)=     0.183557
   iter:  20  x=   -0.986231  g=    0.078431 f(x)=     0.000000
The output lambda is                    ....    -0.986231 (21 iterations)
The final length of the internal step   ....  0.300000000
Converting the step to Cartesian space:
 Initial RMS(Int)=    0.1732050808
Transforming coordinates:
 Iter   0:  RMS(Cart)=    0.0904520994 RMS(Int)=    0.1731508091
 Iter   5:  RMS(Cart)=    0.0000001602 RMS(Int)=    0.0000002594
done
Storing new coordinates                 .... done

                                .--------------------.
          ----------------------|Geometry convergence|-------------------------
          Item                value                   Tolerance       Converged
          ---------------------------------------------------------------------
          RMS gradient        0.4023054307            0.0001000000      NO
          MAX gradient        0.4875612937            0.0003000000      NO
          RMS step            0.1732050808            0.0020000000      NO
          MAX step            0.2069093878            0.0040000000      NO
          -------------------------------------------------------------------------
          ........................................................
          Max(Bonds)      0.1095      Max(Angles)    3.79
          Max(Dihed)        0.00      Max(Improp)    0.00
          ---------------------------------------------------------------------

The optimization has not yet converged - more geometry cycles are needed


    ---------------------------------------------------------------------------
                         Redundant Internal Coordinates
                            (Angstroem and degrees)

        Definition                    Value    dE/dq     Step     New-Value
    ----------------------------------------------------------------------------
     1. B(H   1,S   0)                0.9962 -0.487561  0.1095    1.1057   
     2. B(H   2,S   0)                0.9962 -0.487561  0.1095    1.1057   
     3. A(H   1,S   0,H   2)          144.95  0.100583   -3.79    141.16   
    ----------------------------------------------------------------------------

Geometry step timings:
Preparation and reading OPT file:      0.000 s ( 7.895 %)
Internal coordinates            :      0.000 s ( 4.737 %)
B/P matrices and projection     :      0.000 s (16.053 %)
Hessian update/contruction      :      0.000 s (19.474 %)
Making the step                 :      0.000 s (18.421 %)
Converting the step to Cartesian:      0.000 s ( 5.526 %)
Storing new data                :      0.000 s ( 6.316 %)
Checking convergence            :      0.000 s ( 6.053 %)
Final printing                  :      0.000 s (15.263 %)
Total time                      :      0.000 s

Time for energy+gradient        :      1.249 s
Time for complete geometry iter :      1.260 s

         *************************************************************
         *                GEOMETRY OPTIMIZATION CYCLE   2            *
         *************************************************************
---------------------------------
CARTESIAN COORDINATES (ANGSTROEM)
---------------------------------
  S     -0.000000    0.000000   -0.045108
  H      1.042820    0.000000    0.322554
  H     -1.042820    0.000000    0.322554

----------------------------
CARTESIAN COORDINATES (A.U.)
----------------------------
  NO LB      ZA    FRAG     MASS         X           Y           Z
   0 S    16.0000    0    32.060   -0.000000    0.000000   -0.085242
   1 H     1.0000    0     1.008    1.970644    0.000000    0.609539
   2 H     1.0000    0     1.008   -1.970644    0.000000    0.609539

--------------------------------
INTERNAL COORDINATES (ANGSTROEM)
--------------------------------
 S      0   0   0     0.000000000000     0.00000000     0.00000000
 H      1   0   0     1.105734675112     0.00000000     0.00000000
 H      1   2   0     1.105734673911   141.15823278     0.00000000

---------------------------
INTERNAL COORDINATES (A.U.)
---------------------------
 S      0   0   0     0.000000000000     0.00000000     0.00000000
 H      1   0   0     2.089535712742     0.00000000     0.00000000
 H      1   2   0     2.089535710472   141.15823278     0.00000000

------------------------------------------------------------------------------
                   ___                                                        
                  /   \      - P O W E R E D   B Y -                         
                 /     \                                                     
                 |  |  |   _    _      __       _____    __    __             
                 |  |  |  | |  | |    /  \     |  _  \  |  |  /  |          
                  \  \/   | |  | |   /    \    | | | |  |  | /  /          
                 / \  \   | |__| |  /  /\  \   | |_| |  |  |/  /          
                |  |  |   |  __  | /  /__\  \  |    /   |      \           
                |  |  |   | |  | | |   __   |  |    \   |  |\   \          
                \     /   | |  | | |  |  |  |  | |\  \  |  | \   \       
                 \___/    |_|  |_| |__|  |__|  |_| \__\ |__|  \__/        
                                                                              
                      - O R C A' S   B I G   F R I E N D -                    
                                      &                                       
                       - I N T E G R A L  F E E D E R -                       
                                                                              
 v1 FN, 2020, v2 2021, v3 2022-2024                                           
------------------------------------------------------------------------------


----------------------
SHARK INTEGRAL PACKAGE
----------------------

Number of atoms                             ...      3
Number of basis functions                   ...     22
Number of shells                            ...     12
Maximum angular momentum                    ...      2
Integral batch strategy                     ... SHARK/LIBINT Hybrid
RI-J (if used) integral strategy            ... SPLIT-RIJ (Revised 2003 algorithm where possible)
Printlevel                                  ...      1
Contraction scheme used                     ... SEGMENTED contraction
Prescreening option                         ... SCHWARTZ
   Thresh                                   ... 2.500e-11
   Tcut                                     ... 2.500e-12
   Tpresel                                  ... 2.500e-12 
Coulomb Range Separation                    ... NOT USED
Exchange Range Separation                   ... NOT USED
Multipole approximations                    ... NOT USED
Finite Nucleus Model                        ... NOT USED
CABS basis                                  ... NOT available
Auxiliary Coulomb fitting basis             ... AVAILABLE
   # of basis functions in Aux-J            ...     73
   # of shells in Aux-J                     ...     27
   Maximum angular momentum in Aux-J        ...      4
Auxiliary J/K fitting basis                 ... NOT available
Auxiliary Correlation fitting basis         ... NOT available
Auxiliary 'external' fitting basis          ... NOT available

Checking pre-screening integrals            ... done (  0.0 sec) Dimension = 12
   => SHARK Basis and OBASIS are compatible. Storing Pre-screening
Shell pair information
Shell pair cut-off parameter TPreSel        ...   2.5e-12
Total number of shell pairs                 ...        78
Shell pairs after pre-screening             ...        78
Total number of primitive shell pairs       ...       687
Primitive shell pairs kept                  ...       656
          la=0 lb=0:     36 shell pairs
          la=1 lb=0:     24 shell pairs
          la=1 lb=1:      6 shell pairs
          la=2 lb=0:      8 shell pairs
          la=2 lb=1:      3 shell pairs
          la=2 lb=2:      1 shell pairs

Checking whether 4 symmetric matrices of dimension 22 fit in memory
:Max Core in MB      =   4096.00
 MB in use           =      3.29
 MB left             =   4092.71
 MB needed           =      0.01
 Data fit in memory  = YES
Calculating RI/J V-Matrix + Cholesky decomp.... done (  0.0 sec)
Calculating Nuclear repulsion               ... done (  0.0 sec) ENN=     15.568130964872 Eh

Diagonalization of the overlap matrix:
Smallest eigenvalue                        ... 2.902e-02
Time for diagonalization                   ...    0.000 sec
Threshold for overlap eigenvalues          ... 1.000e-07
Number of eigenvalues below threshold      ... 0
Time for construction of square roots      ...    0.000 sec
Total time needed                          ...    0.000 sec

-------------------
DFT GRID GENERATION
-------------------

General Integration Accuracy     IntAcc      ... 4.388
Radial Grid Type                 RadialGrid  ... OptM3 with GC (2021)
Angular Grid (max. ang.)         AngularGrid ... 4 (Lebedev-302)
Angular grid pruning method      GridPruning ... 4 (adaptive)
Weight generation scheme         WeightScheme... mBecke (2022)
Basis function cutoff            BFCut       ... 1.0000e-11
Integration weight cutoff        WCut        ... 1.0000e-14
Partially contracted basis set               ... off
Rotationally invariant grid construction     ... off
Angular grids for H and He will be reduced by one unit

Total number of grid points                  ...    13974
Total number of batches                      ...      220
Average number of points per batch           ...       63
Average number of grid points per atom       ...     4658

--------------------
COSX GRID GENERATION
--------------------

GRIDX 1
-------
General Integration Accuracy     IntAcc      ... 3.816
Radial Grid Type                 RadialGrid  ... OptM3 with GC (2021)
Angular Grid (max. ang.)         AngularGrid ... 1 (Lebedev-50)
Angular grid pruning method      GridPruning ... 4 (adaptive)
Weight generation scheme         WeightScheme... mBecke (2022)
Basis function cutoff            BFCut       ... 1.0000e-11
Integration weight cutoff        WCut        ... 1.0000e-14
Partially contracted basis set               ... on
Rotationally invariant grid construction     ... off
Angular grids for H and He will be reduced by one unit

Total number of grid points                  ...     2870
Total number of batches                      ...       24
Average number of points per batch           ...      119
Average number of grid points per atom       ...      957
UseSFitting                                  ... on

GRIDX 2
-------
General Integration Accuracy     IntAcc      ... 4.020
Radial Grid Type                 RadialGrid  ... OptM3 with GC (2021)
Angular Grid (max. ang.)         AngularGrid ... 2 (Lebedev-110)
Angular grid pruning method      GridPruning ... 4 (adaptive)
Weight generation scheme         WeightScheme... mBecke (2022)
Basis function cutoff            BFCut       ... 1.0000e-11
Integration weight cutoff        WCut        ... 1.0000e-14
Partially contracted basis set               ... on
Rotationally invariant grid construction     ... off
Angular grids for H and He will be reduced by one unit

Total number of grid points                  ...     3608
Total number of batches                      ...       30
Average number of points per batch           ...      120
Average number of grid points per atom       ...     1203
UseSFitting                                  ... on

GRIDX 3
-------
General Integration Accuracy     IntAcc      ... 4.338
Radial Grid Type                 RadialGrid  ... OptM3 with GC (2021)
Angular Grid (max. ang.)         AngularGrid ... 3 (Lebedev-194)
Angular grid pruning method      GridPruning ... 4 (adaptive)
Weight generation scheme         WeightScheme... mBecke (2022)
Basis function cutoff            BFCut       ... 1.0000e-11
Integration weight cutoff        WCut        ... 1.0000e-14
Partially contracted basis set               ... on
Rotationally invariant grid construction     ... off
Angular grids for H and He will be reduced by one unit

Total number of grid points                  ...     8564
Total number of batches                      ...       68
Average number of points per batch           ...      125
Average number of grid points per atom       ...     2855
UseSFitting                                  ... on
Grids setup in   0.0 sec
Initializing property integral containers    ... done (  0.0 sec)

SHARK setup successfully completed in   0.1 seconds

Maximum memory used throughout the entire STARTUP-calculation: 9.6 MB
Occupation numbers will be reassigned to an Aufbau configuration
             **** ENERGY FILE WAS UPDATED (h2s_opt.en.tmp) ****
Finished Guess after   0.0 sec
Maximum memory used throughout the entire GUESS-calculation: 5.6 MB
----------------------------------------D-I-I-S--------------------------------------------
Iteration    Energy (Eh)           Delta-E    RMSDP     MaxDP     DIISErr   Damp  Time(sec)
-------------------------------------------------------------------------------------------
               ***  Starting incremental Fock matrix formation  ***
    1    -399.1653966725384066     0.00e+00  2.56e-03  1.23e-02  4.35e-02  0.700   0.1
    2    -399.1669034749534148    -1.51e-03  2.34e-03  1.09e-02  3.17e-02  0.700   0.1
                               ***Turning on AO-DIIS***
    3    -399.1679565494022768    -1.05e-03  1.69e-03  6.61e-03  2.17e-02  0.700   0.1
    4    -399.1686747406541826    -7.18e-04  4.52e-03  1.81e-02  1.51e-02  0.000   0.1
                              *** Initializing SOSCF ***
---------------------------------------S-O-S-C-F--------------------------------------
Iteration    Energy (Eh)           Delta-E    RMSDP     MaxDP     MaxGrad    Time(sec)
--------------------------------------------------------------------------------------
    5    -399.1703582774747474    -1.68e-03  6.76e-04  3.91e-03  1.03e-03     0.1
               *** Restarting incremental Fock matrix formation ***
    6    -399.1703679101678404    -9.63e-06  5.54e-04  3.66e-03  5.33e-04     0.1
    7    -399.1703702949504873    -2.38e-06  1.60e-04  9.18e-04  1.26e-04     0.1
    8    -399.1703704151039460    -1.20e-07  5.07e-05  2.85e-04  6.80e-05     0.1
    9    -399.1703704528906087    -3.78e-08  1.81e-06  9.63e-06  5.00e-06     0.1
   10    -399.1703704532189363    -3.28e-10  6.34e-07  3.32e-06  3.15e-06     0.1
                 **** Energy Check signals convergence ****

               *****************************************************
               *                     SUCCESS                       *
               *           SCF CONVERGED AFTER  10 CYCLES          *
               *****************************************************

Recomputing exchange energy using gridx3       ... done (    0.084 sec)
Old exchange energy                            :     -5.172594837 Eh
New exchange energy                            :     -5.172611522 Eh
Exchange energy change after final integration :     -0.000016686 Eh
Total energy after final integration           :   -399.170387139 Eh
             **** ENERGY FILE WAS UPDATED (h2s_opt.en.tmp) ****

----------------
TOTAL SCF ENERGY
----------------

Total Energy       :       -399.17038713891111 Eh          -10861.97845 eV

Components:
Nuclear Repulsion  :         15.56813096487231 Eh             423.63038 eV
Electronic Energy  :       -414.73850141822641 Eh          -11285.60837 eV
One Electron Energy:       -581.63046042400515 Eh          -15826.96946 eV
Two Electron Energy:        166.89195900577874 Eh            4541.36108 eV

Virial components:
Potential Energy   :       -798.66087685627235 Eh          -21732.66733 eV
Kinetic Energy     :        399.49048971736119 Eh           10870.68888 eV
Virial Ratio       :          1.99919872290658

DFT components:
N(Alpha)           :        9.000000433955 electrons
N(Beta)            :        9.000000433955 electrons
N(Total)           :       18.000000867909 electrons
E(X)               :      -20.511237851362 Eh       
E(C)               :       -0.830345362441 Eh       
E(XC)              :      -21.341583213803 Eh       

---------------
SCF CONVERGENCE
---------------

  Last Energy change         ...    3.2833e-10  Tolerance :   1.0000e-08
  Last MAX-Density change    ...    3.3180e-06  Tolerance :   1.0000e-07
  Last RMS-Density change    ...    6.3438e-07  Tolerance :   5.0000e-09
  Last DIIS Error            ...    1.0265e-03  Tolerance :   5.0000e-07
  Last Orbital Gradient      ...    3.1453e-06  Tolerance :   1.0000e-05
  Last Orbital Rotation      ...    1.9774e-06  Tolerance :   1.0000e-05


Total SCF time: 0 days 0 hours 0 min 0 sec 
Finished LeanSCF after   0.7 sec

Maximum memory used throughout the entire LEANSCF-calculation: 5.4 MB

-------------------------   --------------------
FINAL SINGLE POINT ENERGY      -399.170387138911
-------------------------   --------------------

------------------------------------------------------------------------------
                         ORCA SCF GRADIENT CALCULATION
------------------------------------------------------------------------------

Nuc. rep. gradient        (SHARK) ... done (  0.0 sec)
HCore & Overlap gradient  (SHARK) ... done (  0.0 sec)
Split-RIJ-J gradient      (SHARK) ... done (  0.1 sec)
done (  0.3 sec)
XC gradient                       ... done (  0.0 sec)

------------------
CARTESIAN GRADIENT
------------------

   1   S   :   -0.000000015    0.000000010    0.256307046
   2   H   :   -0.208227951   -0.000000015   -0.128153519
   3   H   :    0.208227966    0.000000005   -0.128153527

Difference to translation invariance:
           :   -0.0000000000    0.0000000000    0.0000000000

Difference to rotation invariance:
           :    0.0000000069   -0.0000000053   -0.0000000404

Norm of the Cartesian gradient     ...    0.4304157498
RMS gradient                       ...    0.1434719166
MAX gradient                       ...    0.2563070458

-------
TIMINGS
-------

Total SCF gradient time     ....        0.407 sec

Densities                   ....       0.000 sec  (  0.0%)
One electron gradient       ....       0.003 sec  (  0.8%)
RI-J Coulomb gradient       ....       0.065 sec  ( 16.0%)
COSX gradient               ....       0.297 sec  ( 73.0%)
XC gradient                 ....       0.042 sec  ( 10.2%)

Maximum memory used throughout the entire SCFGRAD-calculation: 6.8 MB
------------------------------------------------------------------------------
                         ORCA GEOMETRY RELAXATION STEP
------------------------------------------------------------------------------

Reading the OPT-File                    .... done
Getting information on internals        .... done
Copying old internal coords+grads       .... done
Making the new internal coordinates     .... (2022 redundants) done
Validating the new internal coordinates .... (2022 redundants) done
Calculating the B-matrix                .... done
Calculating the G,G- and P matrices     .... done
Transforming gradient to internals      .... done
Projecting the internal gradient        .... done
Number of atoms                         ....   3
Number of internal coordinates          ....   3
Current Energy                          ....  -399.170387139 Eh
Current gradient norm                   ....     0.430415750 Eh/bohr
Maximum allowed component of the step   ....  0.300
Current trust radius                    ....  0.300
Updating the Hessian (BFGS)             .... done
Forming the augmented Hessian           .... done
Diagonalizing the augmented Hessian     .... done
Last element of RFO vector              ....  0.941561081
Lowest eigenvalues of augmented Hessian:
 -0.117519689  0.539403798  1.336065920
Length of the computed step             ....  0.357748742
Warning: the length of the step is outside the trust region - taking restricted step instead
The input lambda is                     ....     0.495284
   iter:   5  x=    0.488690  g=447616.563417 f(x)=  1133.118930
   iter:  10  x=    0.438519  g= 1020.012348 f(x)=    19.675744
   iter:  15  x=    0.067151  g=    2.458647 f(x)=     0.333303
   iter:  20  x=   -0.274016  g=    0.180564 f(x)=     0.000006
The output lambda is                    ....    -0.274016 (22 iterations)
The final length of the internal step   ....  0.300000000
Converting the step to Cartesian space:
 Initial RMS(Int)=    0.1732050808
Transforming coordinates:
 Iter   0:  RMS(Cart)=    0.0785838347 RMS(Int)=    0.1737885640
 Iter   5:  RMS(Cart)=    0.0000004237 RMS(Int)=    0.0000006918
done
Storing new coordinates                 .... done
The predicted energy change is          ....    -0.062707285
Previously predicted energy change      ....    -0.148588619
Actually observed energy change         ....    -0.152676399
Ratio of predicted to observed change   ....     1.027510720
New trust radius                        ....     0.450000000

                                .--------------------.
          ----------------------|Geometry convergence|-------------------------
          Item                value                   Tolerance       Converged
          ---------------------------------------------------------------------
          Energy change      -0.1526763993            0.0000050000      NO
          RMS gradient        0.2048337174            0.0001000000      NO
          MAX gradient        0.2389917879            0.0003000000      NO
          RMS step            0.1732050808            0.0020000000      NO
          MAX step            0.1784744900            0.0040000000      NO
          -------------------------------------------------------------------------
          ........................................................
          Max(Bonds)      0.0902      Max(Angles)   10.23
          Max(Dihed)        0.00      Max(Improp)    0.00
          ---------------------------------------------------------------------

The optimization has not yet converged - more geometry cycles are needed


    ---------------------------------------------------------------------------
                         Redundant Internal Coordinates
                            (Angstroem and degrees)

        Definition                    Value    dE/dq     Step     New-Value
    ----------------------------------------------------------------------------
     1. B(H   1,S   0)                1.1057 -0.238992  0.0902    1.1960   
     2. B(H   2,S   0)                1.1057 -0.238992  0.0902    1.1960   
     3. A(H   1,S   0,H   2)          141.16  0.107872  -10.23    130.93   
    ----------------------------------------------------------------------------

Geometry step timings:
Preparation and reading OPT file:      0.000 s ( 3.655 %)
Internal coordinates            :      0.000 s ( 4.178 %)
B/P matrices and projection     :      0.000 s (13.577 %)
Hessian update/contruction      :      0.000 s (24.282 %)
Making the step                 :      0.000 s (14.099 %)
Converting the step to Cartesian:      0.000 s ( 5.744 %)
Storing new data                :      0.000 s (12.533 %)
Checking convergence            :      0.000 s ( 8.877 %)
Final printing                  :      0.000 s (13.055 %)
Total time                      :      0.000 s

Time for energy+gradient        :      1.301 s
Time for complete geometry iter :      1.313 s

         *************************************************************
         *                GEOMETRY OPTIMIZATION CYCLE   3            *
         *************************************************************
---------------------------------
CARTESIAN COORDINATES (ANGSTROEM)
---------------------------------
  S      0.000000    0.000000   -0.131067
  H      1.087988    0.000000    0.365533
  H     -1.087988    0.000000    0.365533

----------------------------
CARTESIAN COORDINATES (A.U.)
----------------------------
  NO LB      ZA    FRAG     MASS         X           Y           Z
   0 S    16.0000    0    32.060    0.000000    0.000000   -0.247680
   1 H     1.0000    0     1.008    2.056000    0.000000    0.690758
   2 H     1.0000    0     1.008   -2.056000    0.000000    0.690758

--------------------------------
INTERNAL COORDINATES (ANGSTROEM)
--------------------------------
 S      0   0   0     0.000000000000     0.00000000     0.00000000
 H      1   0   0     1.195964318109     0.00000000     0.00000000
 H      1   2   0     1.195964326924   130.93239809     0.00000000

---------------------------
INTERNAL COORDINATES (A.U.)
---------------------------
 S      0   0   0     0.000000000000     0.00000000     0.00000000
 H      1   0   0     2.260045027168     0.00000000     0.00000000
 H      1   2   0     2.260045043825   130.93239809     0.00000000

------------------------------------------------------------------------------
                   ___                                                        
                  /   \      - P O W E R E D   B Y -                         
                 /     \                                                     
                 |  |  |   _    _      __       _____    __    __             
                 |  |  |  | |  | |    /  \     |  _  \  |  |  /  |          
                  \  \/   | |  | |   /    \    | | | |  |  | /  /          
                 / \  \   | |__| |  /  /\  \   | |_| |  |  |/  /          
                |  |  |   |  __  | /  /__\  \  |    /   |      \           
                |  |  |   | |  | | |   __   |  |    \   |  |\   \          
                \     /   | |  | | |  |  |  |  | |\  \  |  | \   \       
                 \___/    |_|  |_| |__|  |__|  |_| \__\ |__|  \__/        
                                                                              
                      - O R C A' S   B I G   F R I E N D -                    
                                      &                                       
                       - I N T E G R A L  F E E D E R -                       
                                                                              
 v1 FN, 2020, v2 2021, v3 2022-2024                                           
------------------------------------------------------------------------------


----------------------
SHARK INTEGRAL PACKAGE
----------------------

Number of atoms                             ...      3
Number of basis functions                   ...     22
Number of shells                            ...     12
Maximum angular momentum                    ...      2
Integral batch strategy                     ... SHARK/LIBINT Hybrid
RI-J (if used) integral strategy            ... SPLIT-RIJ (Revised 2003 algorithm where possible)
Printlevel                                  ...      1
Contraction scheme used                     ... SEGMENTED contraction
Prescreening option                         ... SCHWARTZ
   Thresh                                   ... 2.500e-11
   Tcut                                     ... 2.500e-12
   Tpresel                                  ... 2.500e-12 
Coulomb Range Separation                    ... NOT USED
Exchange Range Separation                   ... NOT USED
Multipole approximations                    ... NOT USED
Finite Nucleus Model                        ... NOT USED
CABS basis                                  ... NOT available
Auxiliary Coulomb fitting basis             ... AVAILABLE
   # of basis functions in Aux-J            ...     73
   # of shells in Aux-J                     ...     27
   Maximum angular momentum in Aux-J        ...      4
Auxiliary J/K fitting basis                 ... NOT available
Auxiliary Correlation fitting basis         ... NOT available
Auxiliary 'external' fitting basis          ... NOT available

Checking pre-screening integrals            ... done (  0.0 sec) Dimension = 12
   => SHARK Basis and OBASIS are compatible. Storing Pre-screening
Shell pair information
Shell pair cut-off parameter TPreSel        ...   2.5e-12
Total number of shell pairs                 ...        78
Shell pairs after pre-screening             ...        78
Total number of primitive shell pairs       ...       687
Primitive shell pairs kept                  ...       656
          la=0 lb=0:     36 shell pairs
          la=1 lb=0:     24 shell pairs
          la=1 lb=1:      6 shell pairs
          la=2 lb=0:      8 shell pairs
          la=2 lb=1:      3 shell pairs
          la=2 lb=2:      1 shell pairs

Checking whether 4 symmetric matrices of dimension 22 fit in memory
:Max Core in MB      =   4096.00
 MB in use           =      3.29
 MB left             =   4092.71
 MB needed           =      0.01
 Data fit in memory  = YES
Calculating RI/J V-Matrix + Cholesky decomp.... done (  0.0 sec)
Calculating Nuclear repulsion               ... done (  0.0 sec) ENN=     14.402200524823 Eh

Diagonalization of the overlap matrix:
Smallest eigenvalue                        ... 3.949e-02
Time for diagonalization                   ...    0.000 sec
Threshold for overlap eigenvalues          ... 1.000e-07
Number of eigenvalues below threshold      ... 0
Time for construction of square roots      ...    0.000 sec
Total time needed                          ...    0.000 sec

-------------------
DFT GRID GENERATION
-------------------

General Integration Accuracy     IntAcc      ... 4.388
Radial Grid Type                 RadialGrid  ... OptM3 with GC (2021)
Angular Grid (max. ang.)         AngularGrid ... 4 (Lebedev-302)
Angular grid pruning method      GridPruning ... 4 (adaptive)
Weight generation scheme         WeightScheme... mBecke (2022)
Basis function cutoff            BFCut       ... 1.0000e-11
Integration weight cutoff        WCut        ... 1.0000e-14
Partially contracted basis set               ... off
Rotationally invariant grid construction     ... off
Angular grids for H and He will be reduced by one unit

Total number of grid points                  ...    13992
Total number of batches                      ...      220
Average number of points per batch           ...       63
Average number of grid points per atom       ...     4664

--------------------
COSX GRID GENERATION
--------------------

GRIDX 1
-------
General Integration Accuracy     IntAcc      ... 3.816
Radial Grid Type                 RadialGrid  ... OptM3 with GC (2021)
Angular Grid (max. ang.)         AngularGrid ... 1 (Lebedev-50)
Angular grid pruning method      GridPruning ... 4 (adaptive)
Weight generation scheme         WeightScheme... mBecke (2022)
Basis function cutoff            BFCut       ... 1.0000e-11
Integration weight cutoff        WCut        ... 1.0000e-14
Partially contracted basis set               ... on
Rotationally invariant grid construction     ... off
Angular grids for H and He will be reduced by one unit

Total number of grid points                  ...     2862
Total number of batches                      ...       24
Average number of points per batch           ...      119
Average number of grid points per atom       ...      954
UseSFitting                                  ... on

GRIDX 2
-------
General Integration Accuracy     IntAcc      ... 4.020
Radial Grid Type                 RadialGrid  ... OptM3 with GC (2021)
Angular Grid (max. ang.)         AngularGrid ... 2 (Lebedev-110)
Angular grid pruning method      GridPruning ... 4 (adaptive)
Weight generation scheme         WeightScheme... mBecke (2022)
Basis function cutoff            BFCut       ... 1.0000e-11
Integration weight cutoff        WCut        ... 1.0000e-14
Partially contracted basis set               ... on
Rotationally invariant grid construction     ... off
Angular grids for H and He will be reduced by one unit

Total number of grid points                  ...     3602
Total number of batches                      ...       29
Average number of points per batch           ...      124
Average number of grid points per atom       ...     1201
UseSFitting                                  ... on

GRIDX 3
-------
General Integration Accuracy     IntAcc      ... 4.338
Radial Grid Type                 RadialGrid  ... OptM3 with GC (2021)
Angular Grid (max. ang.)         AngularGrid ... 3 (Lebedev-194)
Angular grid pruning method      GridPruning ... 4 (adaptive)
Weight generation scheme         WeightScheme... mBecke (2022)
Basis function cutoff            BFCut       ... 1.0000e-11
Integration weight cutoff        WCut        ... 1.0000e-14
Partially contracted basis set               ... on
Rotationally invariant grid construction     ... off
Angular grids for H and He will be reduced by one unit

Total number of grid points                  ...     8566
Total number of batches                      ...       68
Average number of points per batch           ...      125
Average number of grid points per atom       ...     2855
UseSFitting                                  ... on
Grids setup in   0.0 sec
Initializing property integral containers    ... done (  0.0 sec)

SHARK setup successfully completed in   0.1 seconds

Maximum memory used throughout the entire STARTUP-calculation: 9.6 MB
Occupation numbers will be reassigned to an Aufbau configuration
             **** ENERGY FILE WAS UPDATED (h2s_opt.en.tmp) ****
Finished Guess after   0.0 sec
Maximum memory used throughout the entire GUESS-calculation: 5.6 MB
----------------------------------------D-I-I-S--------------------------------------------
Iteration    Energy (Eh)           Delta-E    RMSDP     MaxDP     DIISErr   Damp  Time(sec)
-------------------------------------------------------------------------------------------
               ***  Starting incremental Fock matrix formation  ***
    1    -399.2430031783742947     0.00e+00  2.16e-03  1.03e-02  3.59e-02  0.700   0.1
    2    -399.2444007223723474    -1.40e-03  2.23e-03  1.15e-02  2.68e-02  0.700   0.1
                               ***Turning on AO-DIIS***
    3    -399.2454780095752085    -1.08e-03  1.95e-03  9.68e-03  1.89e-02  0.700   0.1
[...]
   Converg. threshold    (grad. norm)   ....   1.000e-05
   Grad. Scal. Fac. for Micro threshold ....   0.100
   Minimum threshold for Micro iter.    ....   1.000e-02
   NR start threshold (gradient norm)   ....   1.000e-04
   Initial trust radius                 ....   0.400
   Minimum AH scaling param. (alpha)    ....   1.000
   Maximum AH scaling param. (alpha)    .... 1000.000
   Quad. conv. algorithm                .... NR
   White noise on init. David. guess    .... on
   Maximum white noise                  ....   0.010
   Pseudo random numbers                .... off
   Inactive MOs                         .... canonical
   Orbital update algorithm             .... Taylor
   Preconditioner                       .... Diag
   Full preconditioner red. dimension   ....   250
 SOSCF                 CNVSOSCF           .... on
   Start iteration     SOSCFMaxIt         ....   150
   Startup grad/error  SOSCFStart         ....  0.003300
   Hessian update      SOSCFHessUp        .... L-BFGS
   Autom. constraints  SOSCFAutoConstrain .... off
 Level Shifting         CNVShift        .... on
   Level shift para.    LevelShift      ....    0.2500
   Turn off err/grad.   ShiftErr        ....    0.0010
 Zerner damping         CNVZerner       .... off
 Static damping         CNVDamp         .... on
   Fraction old density DampFac         ....    0.7000
   Max. Damping (<1)    DampMax         ....    0.9800
   Min. Damping (>=0)   DampMin         ....    0.0000
   Turn off err/grad.   DampErr         ....    0.1000

SCF Procedure:
 Maximum # iterations   MaxIter         ....   125
 SCF integral mode      SCFMode         .... Direct
   Integral package                     .... SHARK and LIBINT hybrid scheme
 Reset frequency        DirectResetFreq ....    20
 Integral Threshold     Thresh          ....  2.500e-11 Eh
 Primitive CutOff       TCut            ....  2.500e-12 Eh

Convergence Tolerance:
 Convergence Check Mode ConvCheckMode   .... Total+1el-Energy
 Convergence forced     ConvForced      .... 0
 Energy Change          TolE            ....  1.000e-08 Eh
 1-El. energy change                    ....  1.000e-05 Eh
 Orbital Gradient       TolG            ....  1.000e-05
 Orbital Rotation angle TolX            ....  1.000e-05
 DIIS Error             TolErr          ....  5.000e-07

---------------------
INITIAL GUESS: MOREAD
---------------------
Guess MOs are being read from file: h2s_opt.gbw
Input Geometry matches current geometry (good)
Input basis set matches current basis set (good)
Occupation numbers will be reassigned to an Aufbau configuration
MOs were renormalized
MOs were reorthogonalized (Cholesky)
                      ------------------
                      INITIAL GUESS DONE (   0.0 sec)
                      ------------------
             **** ENERGY FILE WAS UPDATED (h2s_opt.en.tmp) ****
Finished Guess after   0.0 sec
Maximum memory used throughout the entire GUESS-calculation: 5.6 MB

-------------------------------------------------------------------------------------------
                                      ORCA LEAN-SCF
                              memory conserving SCF solver
-------------------------------------------------------------------------------------------

----------------------------------------D-I-I-S--------------------------------------------
Iteration    Energy (Eh)           Delta-E    RMSDP     MaxDP     DIISErr   Damp  Time(sec)
-------------------------------------------------------------------------------------------
               ***  Starting incremental Fock matrix formation  ***
                              *** Initializing SOSCF ***
---------------------------------------S-O-S-C-F--------------------------------------
Iteration    Energy (Eh)           Delta-E    RMSDP     MaxDP     MaxGrad    Time(sec)
--------------------------------------------------------------------------------------
    1    -399.3143071739912671     0.00e+00  4.05e-06  2.15e-05  2.48e-06     0.1
               *** Restarting incremental Fock matrix formation ***
    2    -399.3143071743592145    -3.68e-10  2.02e-06  1.13e-05  3.12e-06     0.1
    3    -399.3143071742322263     1.27e-10  4.25e-07  2.42e-06  7.25e-07     0.0
                 **** Energy Check signals convergence ****

               *****************************************************
               *                     SUCCESS                       *
               *           SCF CONVERGED AFTER   3 CYCLES          *
               *****************************************************

Recomputing exchange energy using gridx3       ... done (    0.080 sec)
Old exchange energy                            :     -5.141388857 Eh
New exchange energy                            :     -5.141391907 Eh
Exchange energy change after final integration :     -0.000003050 Eh
Total energy after final integration           :   -399.314310224 Eh
             **** ENERGY FILE WAS UPDATED (h2s_opt.en.tmp) ****

----------------
TOTAL SCF ENERGY
----------------

Total Energy       :       -399.31431022422589 Eh          -10865.89479 eV

Components:
Nuclear Repulsion  :         12.81692663214858 Eh             348.76630 eV
Electronic Energy  :       -412.13123380629850 Eh          -11214.66101 eV
One Electron Energy:       -576.54050433192583 Eh          -15688.46471 eV
Two Electron Energy:        164.40927052562731 Eh            4473.80369 eV

Virial components:
Potential Energy   :       -797.97610007641163 Eh          -21714.03360 eV
Kinetic Energy     :        398.66178985218573 Eh           10848.13881 eV
Virial Ratio       :          2.00163677680844

DFT components:
N(Alpha)           :        9.000003520348 electrons
N(Beta)            :        9.000003520348 electrons
N(Total)           :       18.000007040695 electrons
E(X)               :      -20.395195267638 Eh       
E(C)               :       -0.823369346548 Eh       
E(XC)              :      -21.218564614186 Eh       

---------------
SCF CONVERGENCE
---------------

  Last Energy change         ...   -1.2699e-10  Tolerance :   1.0000e-08
  Last MAX-Density change    ...    2.4188e-06  Tolerance :   1.0000e-07
  Last RMS-Density change    ...    4.2478e-07  Tolerance :   5.0000e-09
  Last DIIS Error            ...    2.6061e-05  Tolerance :   5.0000e-07
  Last Orbital Gradient      ...    7.2515e-07  Tolerance :   1.0000e-05
  Last Orbital Rotation      ...    1.0288e-06  Tolerance :   1.0000e-05


----------------
ORBITAL ENERGIES
----------------

  NO   OCC          E(Eh)            E(eV) 
   0   2.0000     -88.860717     -2418.0230 
   1   2.0000      -7.941939      -216.1111 
   2   2.0000      -5.905280      -160.6909 
   3   2.0000      -5.902351      -160.6111 
   4   2.0000      -5.896052      -160.4397 
   5   2.0000      -0.744929       -20.2706 
   6   2.0000      -0.448939       -12.2162 
   7   2.0000      -0.364661        -9.9229 
   8   2.0000      -0.258139        -7.0243 
   9   0.0000       0.022633         0.6159 
  10   0.0000       0.058658         1.5962 
  11   0.0000       0.318154         8.6574 
  12   0.0000       0.335579         9.1316 
  13   0.0000       0.349196         9.5021 
  14   0.0000       0.367984        10.0134 
  15   0.0000       0.677794        18.4437 
  16   0.0000       0.736804        20.0495 
  17   0.0000       0.756919        20.5968 
  18   0.0000       0.762730        20.7549 
  19   0.0000       0.769949        20.9514 
*Only the first 10 virtual orbitals were printed.

                    ********************************
                    * MULLIKEN POPULATION ANALYSIS *
                    ********************************

-----------------------
MULLIKEN ATOMIC CHARGES
-----------------------
   0 S :   -0.235369
   1 H :    0.117685
   2 H :    0.117685
Sum of atomic charges:   -0.0000000

--------------------------------
MULLIKEN REDUCED ORBITAL CHARGES
--------------------------------
  0 S s       :     5.882257  s :     5.882257
      pz      :     3.305513  p :    10.295919
      px      :     2.991536
      py      :     3.998870
      dz2     :     0.004623  d :     0.057194
      dxz     :     0.044048
      dyz     :     0.001130
      dx2y2   :     0.007393
      dxy     :     0.000000

  1 H s       :     0.882315  s :     0.882315

  2 H s       :     0.882315  s :     0.882315



                     *******************************
                     * LOEWDIN POPULATION ANALYSIS *
                     *******************************

----------------------
LOEWDIN ATOMIC CHARGES
----------------------
   0 S :   -0.226029
   1 H :    0.113014
   2 H :    0.113014

-------------------------------
LOEWDIN REDUCED ORBITAL CHARGES
-------------------------------
  0 S s       :     5.718456  s :     5.718456
      pz      :     3.388971  p :    10.444558
      px      :     3.056717
      py      :     3.998870
      dz2     :     0.004749  d :     0.063015
      dxz     :     0.048849
      dyz     :     0.001130
      dx2y2   :     0.008287
      dxy     :     0.000000

  1 H s       :     0.886986  s :     0.886986

  2 H s       :     0.886986  s :     0.886986



                      *****************************
                      * MAYER POPULATION ANALYSIS *
                      *****************************

  NA   - Mulliken gross atomic population
  ZA   - Total nuclear charge
  QA   - Mulliken gross atomic charge
  VA   - Mayer's total valence
  BVA  - Mayer's bonded valence
  FA   - Mayer's free valence

  ATOM       NA         ZA         QA         VA         BVA        FA
  0 S     16.2354    16.0000    -0.2354     1.9028     1.9028    -0.0000
  1 H      0.8823     1.0000     0.1177     0.9495     0.9495     0.0000
  2 H      0.8823     1.0000     0.1177     0.9495     0.9495    -0.0000

  Mayer bond orders larger than 0.100000
B(  0-S ,  1-H ) :   0.9514 B(  0-S ,  2-H ) :   0.9514 

-------
TIMINGS
-------

Total SCF time: 0 days 0 hours 0 min 0 sec 

Total time                  ....       0.335 sec
Sum of individual times     ....       0.283 sec  ( 84.6%)

SCF preparation             ....       0.036 sec  ( 10.7%)
Fock matrix formation       ....       0.239 sec  ( 71.5%)
  Startup                   ....       0.000 sec  (  0.1% of F)
  Split-RI-J                ....       0.010 sec  (  4.0% of F)
  Chain of spheres X        ....       0.225 sec  ( 93.9% of F)
  XC integration            ....       0.049 sec  ( 20.6% of F)
    Basis function eval.    ....       0.019 sec  ( 37.7% of XC)
    Density eval.           ....       0.005 sec  ( 10.8% of XC)
    XC-Functional eval.     ....       0.014 sec  ( 28.2% of XC)
    XC-Potential eval.      ....       0.006 sec  ( 12.6% of XC)
Diagonalization             ....       0.000 sec  (  0.0%)
Density matrix formation    ....       0.000 sec  (  0.1%)
Total Energy calculation    ....       0.000 sec  (  0.0%)
Population analysis         ....       0.007 sec  (  2.0%)
Orbital Transformation      ....       0.000 sec  (  0.0%)
Orbital Orthonormalization  ....       0.000 sec  (  0.0%)
DIIS solution               ....       0.000 sec  (  0.1%)
SOSCF solution              ....       0.001 sec  (  0.2%)
Finished LeanSCF after   0.3 sec

Maximum memory used throughout the entire LEANSCF-calculation: 5.6 MB

-------------------------   --------------------
FINAL SINGLE POINT ENERGY      -399.314310224226
-------------------------   --------------------

                                *** OPTIMIZATION RUN DONE ***


------------------------------------------------------------------------------
                              ORCA PROPERTY CALCULATIONS
------------------------------------------------------------------------------

GBWName                                 ... h2s_opt.gbw
Number of atoms                         ...      3
Number of basis functions               ...     22
Max core memory                         ...   4096 MB

Electric properties:
Dipole moment                           ... YES
Quadrupole moment                       ...  NO
Static polarizability (Dipole/Dipole)   ...  NO
Static polarizability (Dipole/Quad.)    ...  NO
Static polarizability (Quad./Quad.)     ...  NO
Static polarizability (Velocity)        ...  NO
Static hyperpolarizability              ...  NO

Atomic electric properties:
Dipole moment                           ...  NO
Quadrupole moment                       ...  NO
Static polarizability                   ...  NO

Choice of electric origin               ... Center of mass
Position of electric origin             ...     0.000000     0.000000    -0.690813

General magnetic properties:
Magnetizability                         ...  NO

EPR properties:
g-Tensor (aka g-matrix)                 ...  NO
Zero-Field splitting spin-orbit         ...  NO
Zero-field splitting spin-spin          ...  NO
Hyperfine couplings                     ...  NO (   0 nuclei)
Quadrupole couplings                    ...  NO (   0 nuclei)
Contact density                         ...  NO (   0 nuclei)

NMR properties:
Chemical shifts                         ...  NO (   0 nuclei)
Spin-rotation constants                 ...  NO (   0 nuclei)
Spin-spin couplings                     ...  NO (   0 nuclei,    0 pairs)

Choice of magnetic origin               ... GIAO
Position of magnetic origin             ...     0.000000     0.000000     0.000000

Properties with geometric perturbations:
SCF Hessian                             ...  NO
IR spectrum                             ...  NO
VCD spectrum                            ...  NO
X-ray spectroscopy properties:
SCF XES/XAS/RIXS spectra                ...  NO

SCF SOC stabilization energy            ...  NO
Diagonal Born-Oppenheimer correction    ...  NO

-------------
DIPOLE MOMENT
-------------

Method             : SCF
Type of density    : Electron Density
Multiplicity       :   1
Irrep              :   0
Energy             :  -399.3143102242258919 Eh
Basis              : AO
                                X                 Y                 Z
Electronic contribution:      0.000000039      -0.000000001      -1.084283956
Nuclear contribution   :     -0.000000044       0.000000000       1.645058870
                        -----------------------------------------
Total Dipole Moment    :     -0.000000005      -0.000000001       0.560774914
                        -----------------------------------------
Magnitude (a.u.)       :      0.560774914
Magnitude (Debye)      :      1.425376556



--------------------
Rotational spectrum 
--------------------
 
Rotational constants in cm-1:            10.254850             8.755717             4.723087 
Rotational constants in MHz :        307432.663203        262489.802421        141594.592053 

Dipole components along the rotational axes: 
x,y,z [a.u.] :     0.000000     0.560775     0.000000 
x,y,z [Debye]:     0.000000     1.425377     0.000000 

 

Dipole moment calculation done in   0.0 sec 

Maximum memory used throughout the entire PROP-calculation: 3.8 MB

--------------------------------
SUGGESTED CITATIONS FOR THIS RUN
--------------------------------

Below you find a list of papers that are relevant to this ORCA run
We neither can nor want to force you to cite these papers, but we appreciate if you do
You receive ORCA, which is the product of decades of hard work by many enthusiastic individuals, for free
The only thing we kindly ask in return is that you cite our papers,
We deeply appreciate it, if you show your appreciation for ORCA by not just citing the generic ORCA reference.

Please note that relegating all ORCA citations to the supporting information does *not* help us.
SI sections are not indexed - citations you put there will not count into any citation statistics
But we need these citations in order to attract the funding resources that allow us to do what we are doing

Therefore, if you are a happy ORCA user, please consider citing a few of the papers listed below in the main body of your paper

In addition to the list printed below, the program has created the file h2s_opt.bibtex that contains the list in bibtex format
You can import this file easily into all common literature databanks and citation aid programs


List of essential papers. We consider these as the minimum necessary citations

  1. Neese, F.
     Software update: the ORCA program system, version 6.0
     WIRES Comput. Molec. Sci. 2025 15(1), e70019
     doi.org/10.1002/wcms.7019

List of papers to cite with high priority. The work reported in these papers was absolutely
necessary for this run to complete.
Our perspective: the developers of density functionals and basis sets usually get cited in chemistry papers
Good! But without the algorithms to do something with them, the functionals or basis sets would not do anything.
Hence, in our opinion, the algorithm design and method developments papers are equally worthy of getting cited

  1. Neese, F.
     An improvement of the resolution of the identity approximation for the formation of the Coulomb matrix
     J. Comp. Chem. 2003 24(14), 1740-1747
     doi.org/10.1002/jcc.10318
  2. Neese, F.; Wennmohs, F.; Hansen, A.; Becker, U.
     Efficient, approximate and parallel Hartree-Fock and hybrid DFT calculations. A 'chain-of-spheres' algorithm for the Hartree-Fock exchange
     Chem. Phys. 2009 356(1-3), 98-109
     doi.org/10.1016/j.chemphys.2008.10.036
  3. Helmich-Paris, B.; de Souza, B.; Neese, F.; Izsák, R.
     An improved chain of spheres for exchange algorithm
     J. Chem. Phys. 2021 155(10), 104109
     doi.org/10.1063/5.0058766
  4. Neese, F.
     The SHARK Integral Generation and Digestion System
     J. Comp. Chem. 2022 44(3), 381
     doi.org/10.1002/jcc.26942

List of suggested additional citations. These are papers that are important in the 'surrounding' of 
of this run, or papers that preceded the highly important papers. If you like your results we are grateful for a citation.

  1. Izsak, R.; Neese, F.
     An overlap fitted chain of spheres exchange method
     J. Chem. Phys. 2011 135 , 144105
     doi.org/10.1063/1.3646921
  2. Izsak, R.; Hansen, A.; Neese, F.
     The resolution of identity and chain of spheres approximations for the LPNO-CCSD singles Fock term
     Molec. Phys. 2012 110 , 2413-2417
     doi.org/10.1080/00268976.2012.687466
  3. Neese, F.
     The ORCA program system
     WIRES Comput. Molec. Sci. 2012 2(1), 73-78
     doi.org/10.1002/wcms.81
  4. Izsak, R.; Neese, F.; Klopper, W.
     Robust fitting techniques in the chain of spheres approximation to the Fock exchange: The role of the complementary space
     J. Chem. Phys. 2013 139 , 
     doi.org/10.1063/1.4819264
  5. Neese, F.
     Software update: the ORCA program system, version 4.0
     WIRES Comput. Molec. Sci. 2018 8(1), 1-6
     doi.org/10.1002/wcms.1327
  6. Neese, F.; Wennmohs, F.; Becker, U.; Riplinger, C.
     The ORCA quantum chemistry program package
     J. Chem. Phys. 2020 152(22), 224108
     doi.org/10.1063/5.0004608
  7. Neese, F.
     Software update: The ORCA program system—Version 5.0
     WIRES Comput. Molec. Sci. 2022 12(1), e1606
     doi.org/10.1002/wcms.1606

List of optional additional citations

  1. Neese, F.
     Approximate second-order SCF convergence for spin unrestricted wavefunctions
     Chem. Phys. Lett. 2000 325(1-3), 93-98
     doi.org/10.1016/s0009-2614(00)00662-x

Timings for individual modules:

Sum of individual times          ...       12.074 sec (=   0.201 min)
Startup calculation              ...        0.967 sec (=   0.016 min)   8.0 %
SCF iterations                   ...        6.665 sec (=   0.111 min)  55.2 %
Property calculations            ...        0.035 sec (=   0.001 min)   0.3 %
SCF Gradient evaluation          ...        4.399 sec (=   0.073 min)  36.4 %
Geometry relaxation              ...        0.008 sec (=   0.000 min)   0.1 %
                             ****ORCA TERMINATED NORMALLY****
TOTAL RUN TIME: 0 days 0 hours 0 minutes 12 seconds 267 msec
